/*--------------------------------*- C++ -*----------------------------------*\
| =========                 |                                                 |
| \\      /  F ield         | OpenFOAM: The Open Source CFD Toolbox           |
|  \\    /   O peration     | Version:  v2412                                 |
|   \\  /    A nd           | Website:  www.openfoam.com                      |
|    \\/     M anipulation  |                                                 |
\*---------------------------------------------------------------------------*/
FoamFile
{
    version     2.0;
    format      ascii;
    class       volVectorField;
    object      U;
}
// * * * * * * * * * * * * * * * * * * * * * * * * * * * * * * * * * * * * * //

dimensions      [0 1 -1 0 0 0 0];

boundaryField
{	
    top
    {
        type            slip;
    }

    down
    {
        type            slip;
    }
	
	left
    {
        type            slip;
    }
	
	right
    {
        type            slip;
    }

    frontAndBack
    {
        type            empty;
    }
}

internalField nonuniform List<vector>
9801
(
(0.3438875641868282 -0.3058744523937047 0.0)
(0.3463058246923516 -0.32129040445010804 0.0)
(0.3480923441630902 -0.33656760976647726 0.0)
(0.3492695184247429 -0.3516923482244576 0.0)
(0.349858212205212 -0.3666520110973019 0.0)
(0.34987793239502835 -0.3814348585886291 0.0)
(0.3493469979219452 -0.396029837063941 0.0)
(0.34828270047298926 -0.41042643335394985 0.0)
(0.3467014543400014 -0.4246145601667917 0.0)
(0.344618927761912 -0.43858450797090376 0.0)
(0.3420501677981459 -0.45232684732568845 0.0)
(0.33900970354486976 -0.4658324179157147 0.0)
(0.33551163376347154 -0.4790923159536254 0.0)
(0.3315697171122527 -0.4920978354371356 0.0)
(0.3271974220547563 -0.5048405250844976 0.0)
(0.3224079940826894 -0.5173121440488454 0.0)
(0.3172144833889856 -0.529504712507225 0.0)
(0.3116298139003084 -0.541410438582921 0.0)
(0.30566676857181174 -0.553021827687332 0.0)
(0.29933804917115 -0.5643316063767628 0.0)
(0.2926562724893984 -0.5753327746641013 0.0)
(0.2856339930207436 -0.5860185934967879 0.0)
(0.27828368443648677 -0.5963826298981498 0.0)
(0.27061780325840423 -0.606418676877597 0.0)
(0.26264873538020567 -0.6161208402581969 0.0)
(0.2543888005936311 -0.625483526946057 0.0)
(0.2458502860544123 -0.6345014046778447 0.0)
(0.23704545134709232 -0.6431694017774394 0.0)
(0.22798646898757652 -0.6514827633272486 0.0)
(0.21868546143318657 -0.6594370039642137 0.0)
(0.20915452538772605 -0.6670278848415618 0.0)
(0.19940565360645474 -0.6742514713099804 0.0)
(0.1894508008503798 -0.681104069774582 0.0)
(0.1793018834200345 -0.6875822266836641 0.0)
(0.16897072343602854 -0.6936827581475168 0.0)
(0.15846908624444234 -0.6994027154976458 0.0)
(0.1478086869043124 -0.7047393764841676 0.0)
(0.1370011417537605 -0.7096902621278018 0.0)
(0.1260580785462072 -0.7142530787429029 0.0)
(0.11499099597806411 -0.7184257762778923 0.0)
(0.10381136695444945 -0.7222064953680151 0.0)
(0.09253060689588241 -0.7255935765836385 0.0)
(0.0811600899259562 -0.7285855504086312 0.0)
(0.0697111451637037 -0.7311811347147079 0.0)
(0.05819505015811173 -0.7333792315937135 0.0)
(0.046623040824233894 -0.7351789202045346 0.0)
(0.03500635836070544 -0.7365794475592156 0.0)
(0.02335616285521802 -0.7375802377659906 0.0)
(0.01168365366366408 -0.7381808757832163 0.0)
(-9.04256069702569e-17 -0.7383811155446185 0.0)
(-0.01168365366366408 -0.7381808757832163 0.0)
(-0.02335616285521802 -0.7375802377659906 0.0)
(-0.03500635836070544 -0.7365794475592156 0.0)
(-0.046623040824233894 -0.7351789202045346 0.0)
(-0.05819505015811173 -0.7333792315937135 0.0)
(-0.0697111451637037 -0.7311811347147079 0.0)
(-0.081160089925956 -0.7285855504086312 0.0)
(-0.09253060689588241 -0.7255935765836385 0.0)
(-0.10381136695444945 -0.7222064953680151 0.0)
(-0.11499099597806411 -0.7184257762778923 0.0)
(-0.1260580785462072 -0.7142530787429029 0.0)
(-0.1370011417537605 -0.7096902621278018 0.0)
(-0.1478086869043124 -0.7047393764841676 0.0)
(-0.1584690862444423 -0.6994027154976457 0.0)
(-0.16897072343602854 -0.6936827581475168 0.0)
(-0.17930188342003428 -0.6875822266836641 0.0)
(-0.18945080085037963 -0.6811040697745822 0.0)
(-0.19940565360645474 -0.6742514713099804 0.0)
(-0.20915452538772605 -0.6670278848415618 0.0)
(-0.21868546143318657 -0.6594370039642137 0.0)
(-0.22798646898757635 -0.6514827633272486 0.0)
(-0.23704545134709204 -0.6431694017774396 0.0)
(-0.2458502860544123 -0.6345014046778447 0.0)
(-0.2543888005936311 -0.625483526946057 0.0)
(-0.26264873538020567 -0.6161208402581969 0.0)
(-0.27061780325840423 -0.606418676877597 0.0)
(-0.27828368443648677 -0.5963826298981498 0.0)
(-0.2856339930207436 -0.5860185934967879 0.0)
(-0.2926562724893984 -0.5753327746641013 0.0)
(-0.2993380491711499 -0.5643316063767626 0.0)
(-0.3056667685718118 -0.5530218276873321 0.0)
(-0.3116298139003083 -0.541410438582921 0.0)
(-0.3172144833889855 -0.5295047125072249 0.0)
(-0.3224079940826894 -0.5173121440488454 0.0)
(-0.3271974220547563 -0.5048405250844976 0.0)
(-0.3315697171122527 -0.4920978354371356 0.0)
(-0.33551163376347154 -0.4790923159536254 0.0)
(-0.33900970354486964 -0.4658324179157147 0.0)
(-0.3420501677981459 -0.45232684732568845 0.0)
(-0.34461892776191194 -0.4385845079709037 0.0)
(-0.34670145434000144 -0.42461456016679167 0.0)
(-0.34828270047298926 -0.41042643335394985 0.0)
(-0.3493469979219452 -0.396029837063941 0.0)
(-0.34987793239502846 -0.381434858588629 0.0)
(-0.3498582122549338 -0.3666520135536872 0.0)
(-0.34926951860699995 -0.3516923513417732 0.0)
(-0.34809234394753097 -0.33656760754954074 0.0)
(-0.3463058246923516 -0.32129040445010804 0.0)
(-0.3438875645356104 -0.30587445436280336 0.0)
(0.35903903774157264 -0.3027531702540801 0.0)
(0.36245142919720674 -0.3186126919854046 0.0)
(0.36522534526241357 -0.3343976335841809 0.0)
(0.3673790161049149 -0.3500946574090701 0.0)
(0.36892903409719047 -0.36569132446291264 0.0)
(0.3698905334660136 -0.3811758194026972 0.0)
(0.3702773750280232 -0.3965367381850362 0.0)
(0.37010232788246744 -0.4117629163202336 0.0)
(0.3693772450696154 -0.42684329241748564 0.0)
(0.36811322675124064 -0.44176684561963303 0.0)
(0.3663207751109871 -0.45652248407904916 0.0)
(0.3640099332827452 -0.4710990295041467 0.0)
(0.36119040815766523 -0.4854852045297975 0.0)
(0.35787169275335595 -0.49966957369333775 0.0)
(0.3540631529731224 -0.5136406135577313 0.0)
(0.3497741248700571 -0.5273866764846192 0.0)
(0.34501397468226136 -0.5408960613806977 0.0)
(0.33979219323774995 -0.5541569508080214 0.0)
(0.334118410767843 -0.5671575526481973 0.0)
(0.32800247725360876 -0.5798860382665989 0.0)
(0.32145448069249183 -0.5923306253712374 0.0)
(0.31448478725624895 -0.6044795901509804 0.0)
(0.30710403787506374 -0.6163213461279452 0.0)
(0.2993232241963063 -0.6278443812340171 0.0)
(0.2911536448693563 -0.6390373858655107 0.0)
(0.28260691602617743 -0.6498892697044822 0.0)
(0.2736950099273971 -0.6603891450474346 0.0)
(0.2644302629671504 -0.6705263557863432 0.0)
(0.25482531280965925 -0.6802905726831145 0.0)
(0.244893134005268 -0.6896717678444427 0.0)
(0.23464705965186178 -0.6986602160288833 0.0)
(0.22410069085779272 -0.7072465909083292 0.0)
(0.21326795862164194 -0.7154219177799263 0.0)
(0.20216311371144263 -0.7231775983344646 0.0)
(0.1908006538921849 -0.7305054714054646 0.0)
(0.17919535097867353 -0.7373977961130547 0.0)
(0.16736224333729705 -0.7438472641746205 0.0)
(0.1553165658965189 -0.7498470420394923 0.0)
(0.1430738554370179 -0.7553907211022989 0.0)
(0.13064977560981367 -0.7604724074333219 0.0)
(0.11806021263537787 -0.7650866752119326 0.0)
(0.1053212196966084 -0.7692285940720316 0.0)
(0.09244901411202985 -0.772893731567188 0.0)
(0.07945995142364537 -0.7760781632736289 0.0)
(0.06637049550175957 -0.7787784806069926 0.0)
(0.053197206825526595 -0.7809917922009332 0.0)
(0.03995677259508969 -0.7827157211680735 0.0)
(0.026665884596344176 -0.7839484235188283 0.0)
(0.01334135239313353 -0.784688573653 0.0)
(-9.612685985532495e-17 -0.7849353782841895 0.0)
(-0.01334135239313353 -0.784688573653 0.0)
(-0.026665884596344176 -0.7839484235188283 0.0)
(-0.03995677259508969 -0.7827157211680735 0.0)
(-0.053197206825526595 -0.7809917922009332 0.0)
(-0.06637049550175957 -0.7787784806069926 0.0)
(-0.07945995142364537 -0.7760781632736289 0.0)
(-0.09244901411202974 -0.772893731567188 0.0)
(-0.1053212196966084 -0.7692285940720316 0.0)
(-0.11806021263537776 -0.7650866752119327 0.0)
(-0.13064977560981367 -0.7604724074333219 0.0)
(-0.1430738554370179 -0.7553907211022989 0.0)
(-0.1553165658965189 -0.7498470420394923 0.0)
(-0.16736224333729705 -0.7438472641746205 0.0)
(-0.17919535097867353 -0.7373977961130547 0.0)
(-0.1908006538921849 -0.7305054714054646 0.0)
(-0.20216311371144244 -0.7231775983344646 0.0)
(-0.2132679586216419 -0.7154219177799264 0.0)
(-0.22410069085779272 -0.7072465909083292 0.0)
(-0.23464705965186178 -0.6986602160288833 0.0)
(-0.244893134005268 -0.6896717678444427 0.0)
(-0.25482531280965925 -0.6802905726831145 0.0)
(-0.2644302629671502 -0.6705263557863433 0.0)
(-0.2736950099273971 -0.6603891450474346 0.0)
(-0.28260691602617743 -0.6498892697044822 0.0)
(-0.2911536448693563 -0.6390373858655107 0.0)
(-0.2993232241963063 -0.6278443812340171 0.0)
(-0.30710403787506374 -0.6163213461279452 0.0)
(-0.31448478725624895 -0.6044795901509804 0.0)
(-0.32145448069249183 -0.5923306253712374 0.0)
(-0.3280024772536087 -0.5798860382665988 0.0)
(-0.3341184107678431 -0.5671575526481974 0.0)
(-0.3397921932377499 -0.5541569508080215 0.0)
(-0.3450139746822615 -0.5408960613806976 0.0)
(-0.3497741248700571 -0.5273866764846193 0.0)
(-0.3540631529731224 -0.5136406135577313 0.0)
(-0.35787169275335595 -0.49966957369333775 0.0)
(-0.36119040815766523 -0.4854852045297975 0.0)
(-0.3640099332827452 -0.47109902950414684 0.0)
(-0.3663207751109871 -0.45652248407904916 0.0)
(-0.36811322675124053 -0.441766845619633 0.0)
(-0.36937724506961545 -0.42684329241748553 0.0)
(-0.37010232788246744 -0.4117629163202336 0.0)
(-0.3702773750280232 -0.3965367381850362 0.0)
(-0.36989053346601364 -0.3811758194026972 0.0)
(-0.36892903430418816 -0.3656913270298466 0.0)
(-0.36737901648808924 -0.3500946606516724 0.0)
(-0.3652253449035635 -0.3343976312885064 0.0)
(-0.36245142919720674 -0.3186126919854046 0.0)
(-0.35903903821706273 -0.3027531722755415 0.0)
(0.37351926941884234 -0.2989322067001068 0.0)
(0.37794492192550616 -0.3151400373994081 0.0)
(0.3817357444496521 -0.33133576734051196 0.0)
(0.38490630854048485 -0.3475074955246881 0.0)
(0.3874693370010782 -0.3636441006059087 0.0)
(0.38943587306184946 -0.37973492246373286 0.0)
(0.3908154648139844 -0.39576950619296974 0.0)
(0.3916163548830985 -0.4117373876032122 0.0)
(0.39184567145384486 -0.4276279160211609 0.0)
(0.39150961598894396 -0.4434301565017602 0.0)
(0.3906136434146486 -0.4591327429235526 0.0)
(0.3891626356382999 -0.4747238354511468 0.0)
(0.3871610615565561 -0.4901910852385033 0.0)
(0.384613136094497 -0.5055215529583573 0.0)
(0.38152295249368773 -0.5207017702927553 0.0)
(0.37789462002801877 -0.5357176914221513 0.0)
(0.37373237052685965 -0.5505547649079197 0.0)
(0.3690406930472886 -0.5651978637656461 0.0)
(0.36382439766170055 -0.5796314444479904 0.0)
(0.3580887351292221 -0.5938394864120909 0.0)
(0.3518394592721282 -0.607805595362667 0.0)
(0.3450829069434758 -0.621513032379372 0.0)
(0.33782603375245085 -0.6349448220769787 0.0)
(0.33007652496916773 -0.6480837040481239 0.0)
(0.3218427868971465 -0.6609123038716277 0.0)
(0.3131339869143105 -0.6734131823437681 0.0)
(0.30396012002209294 -0.6855688483427493 0.0)
(0.2943320423301269 -0.6973618260885215 0.0)
(0.28426142677365945 -0.7087748025854304 0.0)
(0.27376081653242085 -0.7197906372697099 0.0)
(0.2628436620515313 -0.7303924035172695 0.0)
(0.25152423467965895 -0.740563543679934 0.0)
(0.2398176979361201 -0.7502878563632207 0.0)
(0.227740099504981 -0.7595495686712257 0.0)
(0.21530829040353655 -0.7683334522694736 0.0)
(0.2025399479985045 -0.7766248470906909 0.0)
(0.18945355830862093 -0.7844097190885955 0.0)
(0.17606832497559347 -0.7916747534160127 0.0)
(0.16240426882219267 -0.7984073353639058 0.0)
(0.148482012410337 -0.8045956987365015 0.0)
(0.13432286180237574 -0.8102289074119868 0.0)
(0.11994871678247235 -0.8152969243053625 0.0)
(0.10538203679694182 -0.8197906477390415 0.0)
(0.09064577799834668 -0.8237019544521584 0.0)
(0.0757633229072114 -0.8270237369016874 0.0)
(0.06075842825717187 -0.8297499294613486 0.0)
(0.045655218619878014 -0.8318755261096423 0.0)
(0.03047800466781383 -0.8333966206259398 0.0)
(0.01525136834847031 -0.8343104024747736 0.0)
(-1.0221088134823123e-16 -0.8346151838995083 0.0)
(-0.01525136834847031 -0.8343104024747736 0.0)
(-0.03047800466781383 -0.8333966206259398 0.0)
(-0.045655218619878014 -0.8318755261096423 0.0)
(-0.06075842825717187 -0.8297499294613486 0.0)
(-0.0757633229072114 -0.8270237369016874 0.0)
(-0.09064577799834668 -0.8237019544521584 0.0)
(-0.10538203679694182 -0.8197906477390415 0.0)
(-0.11994871678247235 -0.8152969243053625 0.0)
(-0.1343228618023755 -0.8102289074119869 0.0)
(-0.148482012410337 -0.8045956987365015 0.0)
(-0.16240426882219292 -0.7984073353639058 0.0)
(-0.17606832497559347 -0.7916747534160127 0.0)
(-0.18945355830862093 -0.7844097190885955 0.0)
(-0.20253994799850467 -0.7766248470906909 0.0)
(-0.21530829040353655 -0.7683334522694736 0.0)
(-0.227740099504981 -0.7595495686712257 0.0)
(-0.23981769793612004 -0.7502878563632209 0.0)
(-0.25152423467965895 -0.740563543679934 0.0)
(-0.2628436620515313 -0.7303924035172695 0.0)
(-0.27376081653242085 -0.7197906372697099 0.0)
(-0.28426142677365934 -0.7087748025854304 0.0)
(-0.2943320423301267 -0.6973618260885216 0.0)
(-0.30396012002209294 -0.6855688483427493 0.0)
(-0.3131339869143105 -0.6734131823437681 0.0)
(-0.3218427868971465 -0.6609123038716277 0.0)
(-0.33007652496916773 -0.6480837040481239 0.0)
(-0.33782603375245085 -0.6349448220769787 0.0)
(-0.3450829069434758 -0.621513032379372 0.0)
(-0.3518394592721282 -0.607805595362667 0.0)
(-0.35808873512922207 -0.5938394864120908 0.0)
(-0.36382439766170044 -0.5796314444479906 0.0)
(-0.3690406930472886 -0.5651978637656461 0.0)
(-0.37373237052685965 -0.5505547649079197 0.0)
(-0.3778946200280189 -0.5357176914221514 0.0)
(-0.38152295249368773 -0.5207017702927553 0.0)
(-0.384613136094497 -0.5055215529583573 0.0)
(-0.3871610615565561 -0.4901910852385033 0.0)
(-0.38916263563829995 -0.47472383545114705 0.0)
(-0.3906136434146486 -0.4591327429235526 0.0)
(-0.39150961598894396 -0.4434301565017602 0.0)
(-0.39184567145384486 -0.4276279160211608 0.0)
(-0.3916163548830985 -0.4117373876032122 0.0)
(-0.3908154648139844 -0.39576950619296974 0.0)
(-0.38943587306184946 -0.37973492246373286 0.0)
(-0.38746933737483746 -0.3636441032674697 0.0)
(-0.3849063091341049 -0.34750749887236954 0.0)
(-0.38173574394242554 -0.3313357649803096 0.0)
(-0.37794492192550616 -0.3151400373994081 0.0)
(-0.3735192700228378 -0.2989322087619628 0.0)
(0.3873157805677131 -0.29449671467086547 0.0)
(0.3927617767949481 -0.31095984534727095 0.0)
(0.3975860380296645 -0.3274699478996445 0.0)
(0.40180021138753097 -0.34401739497910677 0.0)
(0.4054138241255463 -0.3605933423305002 0.0)
(0.40843442186648393 -0.3771893646959299 0.0)
(0.4108677322423948 -0.3937971502202088 0.0)
(0.41271784264831346 -0.41040823377088076 0.0)
(0.41398738785974 -0.4270137662515374 0.0)
(0.4146777454332041 -0.4436043654933939 0.0)
(0.41478922600274554 -0.46016991556694953 0.0)
(0.4143212691210765 -0.4766994758407864 0.0)
(0.4132726310374497 -0.49318119976357644 0.0)
(0.41164157349177427 -0.5096022063057053 0.0)
(0.40942603904721975 -0.525948606394724 0.0)
(0.4066238291930554 -0.5422054154476347 0.0)
(0.4032327619843382 -0.5583565990837092 0.0)
(0.3992508535859884 -0.5743849692629934 0.0)
(0.3946764438680025 -0.5902723341232667 0.0)
(0.3895083691785664 -0.6059994137808056 0.0)
(0.3837460879971426 -0.621545940384071 0.0)
(0.3773898222132761 -0.6368906827086045 0.0)
(0.3704406575603375 -0.6520115650622059 0.0)
(0.36290071559952225 -0.6668856164500012 0.0)
(0.35477321168091264 -0.681489172689397 0.0)
(0.34606255628278465 -0.6957979493953058 0.0)
(0.33677448221261747 -0.709787079020705 0.0)
(0.32691613810722076 -0.7234312156226791 0.0)
(0.3164960985421888 -0.7367047396770047 0.0)
(0.3055244691941202 -0.7495818106175463 0.0)
(0.2940129730116971 -0.7620364608789374 0.0)
(0.281974901275819 -0.7740428291358101 0.0)
(0.2694252240992989 -0.7855752023673328 0.0)
(0.2563806127428987 -0.7966081615041612 0.0)
(0.24285937559593823 -0.8071167840401221 0.0)
(0.22888149801996008 -0.8170767404967464 0.0)
(0.21446863143796277 -0.8264644335499511 0.0)
(0.19964399315589654 -0.8352571819121591 0.0)
(0.1844324684536788 -0.8434332695206541 0.0)
(0.1688603554886575 -0.8509721972716282 0.0)
(0.15295543080419774 -0.8578547318793628 0.0)
(0.13674681638272904 -0.8640630585484914 0.0)
(0.1202649005261516 -0.8695808911591802 0.0)
(0.10354121848685854 -0.8743935866825896 0.0)
(0.08660831719217785 -0.8784882478668803 0.0)
(0.06949963386816113 -0.881853806615395 0.0)
(0.052249421213029765 -0.8844810903891456 0.0)
(0.03489246725844608 -0.8863629093305117 0.0)
(0.01746411575161311 -0.8874940809534917 0.0)
(-1.0873289724654465e-16 -0.8878714852498591 0.0)
(-0.01746411575161311 -0.8874940809534917 0.0)
(-0.03489246725844608 -0.8863629093305117 0.0)
(-0.052249421213029765 -0.8844810903891456 0.0)
(-0.06949963386816113 -0.881853806615395 0.0)
(-0.08660831719217785 -0.8784882478668803 0.0)
(-0.10354121848685854 -0.8743935866825896 0.0)
(-0.12026490052615132 -0.8695808911591805 0.0)
(-0.13674681638272904 -0.8640630585484914 0.0)
(-0.15295543080419735 -0.8578547318793628 0.0)
(-0.1688603554886575 -0.8509721972716282 0.0)
(-0.1844324684536788 -0.8434332695206541 0.0)
(-0.19964399315589654 -0.8352571819121591 0.0)
(-0.21446863143796277 -0.8264644335499511 0.0)
(-0.22888149801996008 -0.8170767404967464 0.0)
(-0.24285937559593823 -0.8071167840401221 0.0)
(-0.25638061274289875 -0.7966081615041614 0.0)
(-0.2694252240992989 -0.785575202367333 0.0)
(-0.281974901275819 -0.7740428291358101 0.0)
(-0.2940129730116971 -0.7620364608789374 0.0)
(-0.3055244691941202 -0.7495818106175463 0.0)
(-0.3164960985421888 -0.7367047396770047 0.0)
(-0.32691613810722064 -0.7234312156226792 0.0)
(-0.33677448221261747 -0.709787079020705 0.0)
(-0.34606255628278465 -0.6957979493953058 0.0)
(-0.35477321168091264 -0.681489172689397 0.0)
(-0.36290071559952225 -0.6668856164500012 0.0)
(-0.3704406575603375 -0.6520115650622059 0.0)
(-0.3773898222132761 -0.6368906827086045 0.0)
(-0.3837460879971426 -0.621545940384071 0.0)
(-0.38950836917856635 -0.6059994137808055 0.0)
(-0.3946764438680023 -0.5902723341232669 0.0)
(-0.39925085358598833 -0.5743849692629935 0.0)
(-0.40323276198433816 -0.5583565990837092 0.0)
(-0.40662382919305523 -0.5422054154476349 0.0)
(-0.40942603904721975 -0.525948606394724 0.0)
(-0.41164157349177427 -0.5096022063057053 0.0)
(-0.4132726310374497 -0.49318119976357644 0.0)
(-0.41432126912107664 -0.47669947584078654 0.0)
(-0.41478922600274554 -0.46016991556694953 0.0)
(-0.4146777454332042 -0.44360436549339377 0.0)
(-0.41398738785974 -0.4270137662515374 0.0)
(-0.41271784264831346 -0.41040823377088076 0.0)
(-0.4108677322423948 -0.3937971502202088 0.0)
(-0.40843442186648393 -0.3771893646959298 0.0)
(-0.4054138246732033 -0.3605933450699988 0.0)
(-0.4018002121982357 -0.34401739841115425 0.0)
(-0.39758603737092535 -0.32746994548918273 0.0)
(-0.3927617767949481 -0.31095984534727095 0.0)
(-0.38731578130054645 -0.2944967167615339 0.0)
(0.40042507455399035 -0.28952696417265306 0.0)
(0.40688766438093865 -0.3061561793315871 0.0)
(0.41274988086536435 -0.3228866329084268 0.0)
(0.4180213307391153 -0.33971155425374033 0.0)
(0.4227092181355082 -0.35662509266464704 0.0)
(0.42681843175473594 -0.3736219143972566 0.0)
(0.430351665898832 -0.3906968509242628 0.0)
(0.4333095633128416 -0.40784458005507895 0.0)
(0.43569087574217247 -0.4250593381410096 0.0)
(0.43749264347471917 -0.44233471203790375 0.0)
(0.4387103722798216 -0.4596633738403614 0.0)
(0.4393382293909021 -0.4770369265360032 0.0)
(0.43936923836140535 -0.49444575838985083 0.0)
(0.4387954783425964 -0.5118788457257795 0.0)
(0.43760828670526375 -0.52932371874991 0.0)
(0.4357984637423939 -0.5467663072589779 0.0)
(0.433356472162611 -0.5641909291495343 0.0)
(0.4302726584516744 -0.5815801198136881 0.0)
(0.42653744019337586 -0.5989147375922337 0.0)
(0.42214153384144965 -0.6161738198731384 0.0)
(0.4170761525754708 -0.6333346430510907 0.0)
(0.41133322208948414 -0.6503727058253108 0.0)
(0.4049055655282212 -0.6672618231606713 0.0)
(0.39778715933550235 -0.6839740382695767 0.0)
(0.38997328946835486 -0.7004798244425123 0.0)
(0.3814607490273025 -0.7167481534059772 0.0)
(0.3722480653812096 -0.7327465315951049 0.0)
(0.36233569834863066 -0.7484411227169692 0.0)
(0.35172615439263627 -0.7637969976625323 0.0)
(0.3404241941057687 -0.7787782222330915 0.0)
(0.32843702097603994 -0.7933480031496226 0.0)
(0.31577432574619335 -0.8074690094753451 0.0)
(0.30244848993622847 -0.8211034836701326 0.0)
(0.2884746923253528 -0.8342134847309812 0.0)
(0.2738709130177954 -0.8467612114479092 0.0)
(0.25865803684909644 -0.8587092109417633 0.0)
(0.24285989125847615 -0.8700206468847206 0.0)
(0.22650317204109563 -0.8806596302868788 0.0)
(0.20961757658535696 -0.890591394338563 0.0)
(0.19223552698423083 -0.8997827190754228 0.0)
(0.17439222970315568 -0.9082021133614901 0.0)
(0.15612549854033014 -0.9158201230202347 0.0)
(0.13747561952606463 -0.9226095855907832 0.0)
(0.11848515321552185 -0.9285458860797715 0.0)
(0.09919870187092612 -0.9336071918302749 0.0)
(0.07966267662089721 -0.9377746547045356 0.0)
(0.0599251038927703 -0.9410325811509155 0.0)
(0.04003518454895432 -0.9433686149819168 0.0)
(0.02004318626898552 -0.9447738280596681 0.0)
(-1.1575886093415342e-16 -0.9452428325844582 0.0)
(-0.02004318626898552 -0.9447738280596681 0.0)
(-0.04003518454895432 -0.9433686149819168 0.0)
(-0.0599251038927703 -0.9410325811509155 0.0)
(-0.07966267662089721 -0.9377746547045356 0.0)
(-0.09919870187092612 -0.9336071918302749 0.0)
(-0.11848515321552185 -0.9285458860797715 0.0)
(-0.13747561952606435 -0.9226095855907832 0.0)
(-0.15612549854033014 -0.9158201230202347 0.0)
(-0.1743922297031554 -0.9082021133614901 0.0)
(-0.19223552698423083 -0.8997827190754228 0.0)
(-0.20961757658535696 -0.890591394338563 0.0)
(-0.22650317204109563 -0.8806596302868788 0.0)
(-0.24285989125847615 -0.8700206468847206 0.0)
(-0.25865803684909644 -0.8587092109417633 0.0)
(-0.2738709130177954 -0.8467612114479092 0.0)
(-0.2884746923253528 -0.8342134847309812 0.0)
(-0.3024484899362282 -0.8211034836701329 0.0)
(-0.31577432574619335 -0.8074690094753451 0.0)
(-0.32843702097603994 -0.7933480031496226 0.0)
(-0.3404241941057687 -0.7787782222330915 0.0)
(-0.3517261543926363 -0.7637969976625325 0.0)
(-0.36233569834863055 -0.7484411227169694 0.0)
(-0.3722480653812096 -0.7327465315951049 0.0)
(-0.3814607490273025 -0.7167481534059772 0.0)
(-0.38997328946835486 -0.7004798244425123 0.0)
(-0.39778715933550235 -0.6839740382695767 0.0)
(-0.4049055655282212 -0.6672618231606713 0.0)
(-0.41133322208948414 -0.6503727058253108 0.0)
(-0.4170761525754708 -0.6333346430510907 0.0)
(-0.4221415338414498 -0.6161738198731382 0.0)
(-0.4265374401933758 -0.5989147375922339 0.0)
(-0.43027265845167445 -0.5815801198136882 0.0)
(-0.433356472162611 -0.5641909291495343 0.0)
(-0.4357984637423939 -0.5467663072589779 0.0)
(-0.43760828670526375 -0.52932371874991 0.0)
(-0.4387954783425964 -0.5118788457257795 0.0)
(-0.43936923836140535 -0.49444575838985083 0.0)
(-0.43933822939090206 -0.47703692653600327 0.0)
(-0.4387103722798216 -0.4596633738403614 0.0)
(-0.43749264347471917 -0.44233471203790375 0.0)
(-0.4356908757421725 -0.4250593381410096 0.0)
(-0.4333095633128416 -0.40784458005507895 0.0)
(-0.430351665898832 -0.3906968509242628 0.0)
(-0.42681843175473594 -0.3736219143972566 0.0)
(-0.4227092188618502 -0.3566250954650344 0.0)
(-0.4180213317707451 -0.3397115577494064 0.0)
(-0.4127498800538083 -0.3228866304617397 0.0)
(-0.40688766438093865 -0.3061561793315871 0.0)
(-0.4004250754146961 -0.28952696628111185 0.0)
(0.41285127734563704 -0.28409770104772825 0.0)
(0.42031722260252496 -0.30080877475227896 0.0)
(0.42721107974672734 -0.31766948643530557 0.0)
(0.433541371323969 -0.3346762388097929 0.0)
(0.4393139696387571 -0.35182661903461065 0.0)
(0.4445321165964844 -0.3691189713818578 0.0)
(0.44919648288103153 -0.38655201161744235 0.0)
(0.4533052539744241 -0.40412446559785875 0.0)
(0.4568542394042252 -0.42183473107507186 0.0)
(0.4598370103990776 -0.43968061377637413 0.0)
(0.46224503561768393 -0.4576589975088582 0.0)
(0.46406784857065647 -0.47576562182271576 0.0)
(0.4652932202691876 -0.49399486326822784 0.0)
(0.4659073391016935 -0.512339456732908 0.0)
(0.46589501229542796 -0.5307903822788911 0.0)
(0.4652398690140356 -0.549336621640218 0.0)
(0.4639245763951145 -0.5679650615464632 0.0)
(0.4619310764022851 -0.5866602242548549 0.0)
(0.4592408166678917 -0.6054042906552644 0.0)
(0.4558350166827797 -0.6241768551740994 0.0)
(0.451694928558275 -0.6429548993692035 0.0)
(0.4468021231450316 -0.6617126843566435 0.0)
(0.441138763584648 -0.6804217675655755 0.0)
(0.43468795412210914 -0.6990508229195607 0.0)
(0.4274340160317159 -0.7175657876255791 0.0)
(0.4193628099392463 -0.7359298717044735 0.0)
(0.41046209981488085 -0.7541035406121241 0.0)
(0.4007219033290754 -0.7720446064242131 0.0)
(0.3901347685485924 -0.7897084806581129 0.0)
(0.3786961482975457 -0.8070482602794182 0.0)
(0.3664047648757084 -0.8240148974939315 0.0)
(0.3532628298177528 -0.840557594877348 0.0)
(0.33927642495557137 -0.8566239791295893 0.0)
(0.32445578270294145 -0.8721604506702337 0.0)
(0.30881544919979587 -0.8871126532462285 0.0)
(0.2923745397628915 -0.9014258324778794 0.0)
(0.2751569105451926 -0.9150452875840005 0.0)
(0.2571911878515846 -0.9279169207055629 0.0)
(0.23851100113146587 -0.9399876176949319 0.0)
(0.21915473849685388 -0.951205947827341 0.0)
(0.19916564117441518 -0.9615225831042933 0.0)
(0.17859160450736547 -0.9708908790525086 0.0)
(0.1574849902930779 -0.979267394731126 0.0)
(0.13590233339740987 -0.9866124127838123 0.0)
(0.11390397294360152 -0.9928904272710788 0.0)
(0.09155364940462135 -0.9980705789362512 0.0)
(0.06891811563715358 -1.0021270330244185 0.0)
(0.046066436325889394 -1.0050393505287647 0.0)
(0.023069645487830776 -1.0067927179544847 0.0)
(-1.233682455588267e-16 -1.00737817340249 0.0)
(-0.023069645487830776 -1.0067927179544847 0.0)
(-0.046066436325889394 -1.0050393505287647 0.0)
(-0.06891811563715358 -1.0021270330244185 0.0)
(-0.09155364940462135 -0.9980705789362512 0.0)
(-0.11390397294360152 -0.9928904272710788 0.0)
(-0.13590233339740987 -0.9866124127838123 0.0)
(-0.15748499029307755 -0.9792673947311261 0.0)
(-0.17859160450736547 -0.9708908790525086 0.0)
(-0.19916564117441488 -0.9615225831042933 0.0)
(-0.21915473849685388 -0.951205947827341 0.0)
(-0.23851100113146623 -0.9399876176949318 0.0)
(-0.2571911878515846 -0.9279169207055629 0.0)
(-0.2751569105451926 -0.9150452875840005 0.0)
(-0.29237453976289185 -0.9014258324778794 0.0)
(-0.30881544919979587 -0.8871126532462285 0.0)
(-0.3244557827029413 -0.8721604506702338 0.0)
(-0.3392764249555712 -0.8566239791295895 0.0)
(-0.35326282981775303 -0.8405575948773478 0.0)
(-0.3664047648757084 -0.8240148974939315 0.0)
(-0.3786961482975457 -0.8070482602794182 0.0)
(-0.3901347685485924 -0.7897084806581129 0.0)
(-0.4007219033290754 -0.7720446064242131 0.0)
(-0.41046209981488085 -0.7541035406121241 0.0)
(-0.4193628099392463 -0.7359298717044735 0.0)
(-0.4274340160317159 -0.7175657876255791 0.0)
(-0.43468795412210914 -0.6990508229195607 0.0)
(-0.441138763584648 -0.6804217675655755 0.0)
(-0.4468021231450316 -0.6617126843566435 0.0)
(-0.451694928558275 -0.6429548993692035 0.0)
(-0.4558350166827796 -0.6241768551740994 0.0)
(-0.4592408166678915 -0.6054042906552646 0.0)
(-0.4619310764022852 -0.586660224254855 0.0)
(-0.46392457639511436 -0.5679650615464631 0.0)
(-0.46523986901403547 -0.5493366216402182 0.0)
(-0.46589501229542796 -0.5307903822788911 0.0)
(-0.4659073391016935 -0.512339456732908 0.0)
(-0.4652932202691876 -0.49399486326822784 0.0)
(-0.4640678485706564 -0.475765621822716 0.0)
(-0.46224503561768393 -0.4576589975088582 0.0)
(-0.45983701039907754 -0.43968061377637413 0.0)
(-0.4568542394042251 -0.4218347310750718 0.0)
(-0.4533052539744241 -0.40412446559785875 0.0)
(-0.44919648288103153 -0.38655201161744235 0.0)
(-0.4445321165964844 -0.3691189713818578 0.0)
(-0.43931397054629573 -0.3518266218788556 0.0)
(-0.43354137257773273 -0.3346762423487127 0.0)
(-0.42721107878272435 -0.3176694839659443 0.0)
(-0.42031722260252496 -0.30080877475227896 0.0)
(-0.4128512783321301 -0.2840977031636469 0.0)
(0.4246048359523682 -0.27827776178564856 0.0)
(0.433052808718203 -0.29499232582041346 0.0)
(0.44096248368197455 -0.3118983336415313 0.0)
(0.44834225595732646 -0.3289954202342684 0.0)
(0.4551976978173119 -0.3462847774676006 0.0)
(0.46153150128171916 -0.36376872237489316 0.0)
(0.4673434618987288 -0.38145029680718745 0.0)
(0.47263049085844655 -0.3993328814805197 0.0)
(0.4773866523402909 -0.417419823726917 0.0)
(0.4816032354135763 -0.43571413157145483 0.0)
(0.4852688212078614 -0.4542180910503889 0.0)
(0.48836939147787795 -0.4729329839768252 0.0)
(0.4908884459010079 -0.4918588005202049 0.0)
(0.4928071263579673 -0.5109938797287771 0.0)
(0.4941043796367745 -0.5303347120131737 0.0)
(0.4947571188465541 -0.5498755964254634 0.0)
(0.4947404158285107 -0.5696084417126045 0.0)
(0.49402771152446623 -0.5895223751049445 0.0)
(0.4925910516951293 -0.6096036513191772 0.0)
(0.49040135216751213 -0.6298352681772676 0.0)
(0.4874286884349991 -0.650196806686782 0.0)
(0.4836426218168576 -0.6706641777380398 0.0)
(0.47901253918731607 -0.691209498774257 0.0)
(0.47350807744980605 -0.7118007517868169 0.0)
(0.46709951615257833 -0.732401798110196 0.0)
(0.4597582311200367 -0.7529722471897959 0.0)
(0.4514572144403782 -0.773467299326806 0.0)
(0.4421716123458335 -0.7938377176293283 0.0)
(0.4318792181045281 -0.8140299985327522 0.0)
(0.4205610807488681 -0.8339863733413986 0.0)
(0.4082021313908211 -0.8536449261209194 0.0)
(0.39479168358122213 -0.8729400011460022 0.0)
(0.38032410900766894 -0.8918023887032577 0.0)